<?xml version="1.0" encoding="UTF-8"?>

<!-- generated on 2026-04-17 17:08:56 by Eclipse SUMO sumo Version 1.18.0
<configuration xmlns:xsi="http://www.w3.org/2001/XMLSchema-instance" xsi:noNamespaceSchemaLocation="http://sumo.dlr.de/xsd/sumoConfiguration.xsd">

    <input>
        <net-file value="/home/sherif453/code/alex-mobility/data/exports/scenarios/sumo-scenarios-20260417T150843Z/lane-reduction/network.net.xml"/>
        <route-files value="/home/sherif453/code/alex-mobility/data/exports/scenarios/sumo-scenarios-20260417T150843Z/lane-reduction/routes.rou.xml"/>
        <additional-files value="/home/sherif453/code/alex-mobility/data/exports/scenarios/sumo-scenarios-20260417T150843Z/lane-reduction/additional.add.xml"/>
    </input>

    <output>
        <queue-output value="/home/sherif453/code/alex-mobility/data/exports/scenarios/sumo-scenarios-20260417T150843Z/lane-reduction/queue.xml"/>
        <queue-output.period value="60"/>
        <summary-output value="/home/sherif453/code/alex-mobility/data/exports/scenarios/sumo-scenarios-20260417T150843Z/lane-reduction/summary.xml"/>
        <tripinfo-output value="/home/sherif453/code/alex-mobility/data/exports/scenarios/sumo-scenarios-20260417T150843Z/lane-reduction/tripinfo.xml"/>
        <tripinfo-output.write-unfinished value="true"/>
    </output>

    <time>
        <begin value="0"/>
        <end value="900"/>
    </time>

    <report>
        <no-step-log value="true"/>
    </report>

    <gui_only>
        <quit-on-end value="true"/>
    </gui_only>

</configuration>
-->

<tripinfos xmlns:xsi="http://www.w3.org/2001/XMLSchema-instance" xsi:noNamespaceSchemaLocation="http://sumo.dlr.de/xsd/tripinfo_file.xsd">
    <tripinfo id="lane-reduction_veh_0000" depart="0.00" departLane="edge_001_0" departPos="5.10" departSpeed="8.83" departDelay="0.00" arrival="-1.00" arrivalLane="" arrivalPos="-1.00" arrivalSpeed="-1.00" duration="900.00" routeLength="6442.29" waitingTime="0.00" waitingCount="0" stopTime="0.00" timeLoss="84.18" rerouteNo="0" devices="tripinfo_lane-reduction_veh_0000" vType="passenger" speedFactor="1.06" vaporized="end"/>
    <tripinfo id="lane-reduction_veh_0001" depart="8.00" departLane="edge_001_1" departPos="5.10" departSpeed="7.82" departDelay="0.50" arrival="-1.00" arrivalLane="" arrivalPos="-1.00" arrivalSpeed="-1.00" duration="892.00" routeLength="5428.88" waitingTime="0.00" waitingCount="0" stopTime="0.00" timeLoss="99.39" rerouteNo="0" devices="tripinfo_lane-reduction_veh_0001" vType="passenger" speedFactor="0.94" vaporized="end"/>
    <tripinfo id="lane-reduction_veh_0002" depart="15.00" departLane="edge_001_1" departPos="5.10" departSpeed="8.42" departDelay="0.00" arrival="-1.00" arrivalLane="" arrivalPos="-1.00" arrivalSpeed="-1.00" duration="885.00" routeLength="5931.04" waitingTime="0.00" waitingCount="0" stopTime="0.00" timeLoss="89.15" rerouteNo="0" devices="tripinfo_lane-reduction_veh_0002" vType="passenger" speedFactor="1.01" vaporized="end"/>
    <tripinfo id="lane-reduction_veh_0003" depart="23.00" departLane="edge_001_0" departPos="5.10" departSpeed="9.02" departDelay="0.50" arrival="-1.00" arrivalLane="" arrivalPos="-1.00" arrivalSpeed="-1.00" duration="877.00" routeLength="6421.13" waitingTime="0.00" waitingCount="0" stopTime="0.00" timeLoss="80.41" rerouteNo="0" devices="tripinfo_lane-reduction_veh_0003" vType="passenger" speedFactor="1.08" vaporized="end"/>
    <tripinfo id="lane-reduction_veh_0004" depart="30.00" departLane="edge_001_1" departPos="5.10" departSpeed="8.58" departDelay="0.00" arrival="-1.00" arrivalLane="" arrivalPos="-1.00" arrivalSpeed="-1.00" duration="870.00" routeLength="5957.96" waitingTime="0.00" waitingCount="0" stopTime="0.00" timeLoss="86.41" rerouteNo="0" devices="tripinfo_lane-reduction_veh_0004" vType="passenger" speedFactor="1.03" vaporized="end"/>
    <tripinfo id="lane-reduction_veh_0005" depart="38.00" departLane="edge_001_1" departPos="5.10" departSpeed="6.92" departDelay="0.50" arrival="-1.00" arrivalLane="" arrivalPos="-1.00" arrivalSpeed="-1.00" duration="862.00" routeLength="4441.44" waitingTime="0.00" waitingCount="0" stopTime="0.00" timeLoss="109.99" rerouteNo="0" devices="tripinfo_lane-reduction_veh_0005" vType="passenger" speedFactor="0.83" vaporized="end"/>
    <tripinfo id="lane-reduction_veh_0006" depart="45.00" departLane="edge_001_1" departPos="5.10" departSpeed="8.71" departDelay="0.00" arrival="-1.00" arrivalLane="" arrivalPos="-1.00" arrivalSpeed="-1.00" duration="855.00" routeLength="5951.16" waitingTime="0.00" waitingCount="0" stopTime="0.00" timeLoss="84.10" rerouteNo="0" devices="tripinfo_lane-reduction_veh_0006" vType="passenger" speedFactor="1.05" vaporized="end"/>
    <tripinfo id="lane-reduction_veh_0007" depart="53.00" departLane="edge_001_0" departPos="5.10" departSpeed="7.38" departDelay="0.50" arrival="-1.00" arrivalLane="" arrivalPos="-1.00" arrivalSpeed="-1.00" duration="847.00" routeLength="4712.54" waitingTime="0.00" waitingCount="0" stopTime="0.00" timeLoss="104.99" rerouteNo="0" devices="tripinfo_lane-reduction_veh_0007" vType="passenger" speedFactor="0.89" vaporized="end"/>
    <tripinfo id="lane-reduction_veh_0008" depart="60.00" departLane="edge_001_1" departPos="5.10" departSpeed="7.81" departDelay="0.00" arrival="-1.00" arrivalLane="" arrivalPos="-1.00" arrivalSpeed="-1.00" duration="840.00" routeLength="5015.85" waitingTime="0.00" waitingCount="0" stopTime="0.00" timeLoss="100.50" rerouteNo="0" devices="tripinfo_lane-reduction_veh_0008" vType="passenger" speedFactor="0.94" vaporized="end"/>
    <tripinfo id="lane-reduction_veh_0009" depart="68.00" departLane="edge_001_1" departPos="5.10" departSpeed="7.14" departDelay="0.50" arrival="-1.00" arrivalLane="" arrivalPos="-1.00" arrivalSpeed="-1.00" duration="832.00" routeLength="4397.87" waitingTime="0.00" waitingCount="0" stopTime="0.00" timeLoss="108.96" rerouteNo="0" devices="tripinfo_lane-reduction_veh_0009" vType="passenger" speedFactor="0.86" vaporized="end"/>
    <tripinfo id="lane-reduction_veh_0010" depart="75.00" departLane="edge_001_1" departPos="5.10" departSpeed="9.09" departDelay="0.00" arrival="-1.00" arrivalLane="" arrivalPos="-1.00" arrivalSpeed="-1.00" duration="825.00" routeLength="5697.35" waitingTime="0.00" waitingCount="0" stopTime="0.00" timeLoss="113.85" rerouteNo="0" devices="tripinfo_lane-reduction_veh_0010" vType="passenger" speedFactor="1.09" vaporized="end"/>
    <tripinfo id="lane-reduction_veh_0011" depart="83.00" departLane="edge_001_0" departPos="5.10" departSpeed="8.55" departDelay="0.50" arrival="-1.00" arrivalLane="" arrivalPos="-1.00" arrivalSpeed="-1.00" duration="817.00" routeLength="5526.69" waitingTime="0.00" waitingCount="0" stopTime="0.00" timeLoss="81.34" rerouteNo="0" devices="tripinfo_lane-reduction_veh_0011" vType="passenger" speedFactor="1.03" vaporized="end"/>
    <tripinfo id="lane-reduction_veh_0012" depart="90.00" departLane="edge_001_1" departPos="5.10" departSpeed="8.72" departDelay="0.00" arrival="-1.00" arrivalLane="" arrivalPos="-1.00" arrivalSpeed="-1.00" duration="810.00" routeLength="5518.02" waitingTime="0.00" waitingCount="0" stopTime="0.00" timeLoss="89.42" rerouteNo="0" devices="tripinfo_lane-reduction_veh_0012" vType="passenger" speedFactor="1.05" vaporized="end"/>
    <tripinfo id="lane-reduction_veh_0013" depart="98.00" departLane="edge_001_1" departPos="5.10" departSpeed="9.35" departDelay="0.50" arrival="-1.00" arrivalLane="" arrivalPos="-1.00" arrivalSpeed="-1.00" duration="802.00" routeLength="5736.91" waitingTime="0.00" waitingCount="0" stopTime="0.00" timeLoss="107.00" rerouteNo="0" devices="tripinfo_lane-reduction_veh_0013" vType="passenger" speedFactor="1.12" vaporized="end"/>
    <tripinfo id="lane-reduction_veh_0014" depart="105.00" departLane="edge_001_0" departPos="5.10" departSpeed="8.26" departDelay="0.00" arrival="-1.00" arrivalLane="" arrivalPos="-1.00" arrivalSpeed="-1.00" duration="795.00" routeLength="4820.89" waitingTime="0.00" waitingCount="0" stopTime="0.00" timeLoss="118.46" rerouteNo="0" devices="tripinfo_lane-reduction_veh_0014" vType="passenger" speedFactor="0.99" vaporized="end"/>
    <tripinfo id="lane-reduction_veh_0015" depart="113.00" departLane="edge_001_1" departPos="5.10" departSpeed="7.72" departDelay="0.50" arrival="-1.00" arrivalLane="" arrivalPos="-1.00" arrivalSpeed="-1.00" duration="787.00" routeLength="4384.32" waitingTime="0.00" waitingCount="0" stopTime="0.00" timeLoss="119.71" rerouteNo="0" devices="tripinfo_lane-reduction_veh_0015" vType="passenger" speedFactor="0.93" vaporized="end"/>
    <tripinfo id="lane-reduction_veh_0016" depart="120.00" departLane="edge_001_1" departPos="5.10" departSpeed="7.32" departDelay="0.00" arrival="-1.00" arrivalLane="" arrivalPos="-1.00" arrivalSpeed="-1.00" duration="780.00" routeLength="4237.82" waitingTime="0.00" waitingCount="0" stopTime="0.00" timeLoss="96.20" rerouteNo="0" devices="tripinfo_lane-reduction_veh_0016" vType="passenger" speedFactor="0.88" vaporized="end"/>
    <tripinfo id="lane-reduction_veh_0017" depart="128.00" departLane="edge_001_1" departPos="5.10" departSpeed="7.84" departDelay="0.50" arrival="-1.00" arrivalLane="" arrivalPos="-1.00" arrivalSpeed="-1.00" duration="772.00" routeLength="4381.10" waitingTime="0.00" waitingCount="0" stopTime="0.00" timeLoss="115.33" rerouteNo="0" devices="tripinfo_lane-reduction_veh_0017" vType="passenger" speedFactor="0.94" vaporized="end"/>
    <tripinfo id="lane-reduction_veh_0018" depart="135.00" departLane="edge_001_0" departPos="5.10" departSpeed="7.80" departDelay="0.00" arrival="-1.00" arrivalLane="" arrivalPos="-1.00" arrivalSpeed="-1.00" duration="765.00" routeLength="4327.03" waitingTime="0.00" waitingCount="0" stopTime="0.00" timeLoss="112.30" rerouteNo="0" devices="tripinfo_lane-reduction_veh_0018" vType="passenger" speedFactor="0.94" vaporized="end"/>
    <tripinfo id="lane-reduction_veh_0019" depart="143.00" departLane="edge_001_1" departPos="5.10" departSpeed="9.65" departDelay="0.50" arrival="-1.00" arrivalLane="" arrivalPos="-1.00" arrivalSpeed="-1.00" duration="757.00" routeLength="5317.55" waitingTime="0.00" waitingCount="0" stopTime="0.00" timeLoss="126.27" rerouteNo="0" devices="tripinfo_lane-reduction_veh_0019" vType="passenger" speedFactor="1.16" vaporized="end"/>
    <tripinfo id="lane-reduction_veh_0020" depart="150.00" departLane="edge_001_0" departPos="5.10" departSpeed="8.48" departDelay="0.00" arrival="-1.00" arrivalLane="" arrivalPos="-1.00" arrivalSpeed="-1.00" duration="750.00" routeLength="4512.68" waitingTime="0.00" waitingCount="0" stopTime="0.00" timeLoss="127.93" rerouteNo="0" devices="tripinfo_lane-reduction_veh_0020" vType="passenger" speedFactor="1.02" vaporized="end"/>
    <tripinfo id="lane-reduction_veh_0021" depart="158.00" departLane="edge_001_1" departPos="5.10" departSpeed="8.41" departDelay="0.50" arrival="-1.00" arrivalLane="" arrivalPos="-1.00" arrivalSpeed="-1.00" duration="742.00" routeLength="4412.90" waitingTime="0.00" waitingCount="0" stopTime="0.00" timeLoss="126.60" rerouteNo="0" devices="tripinfo_lane-reduction_veh_0021" vType="passenger" speedFactor="1.01" vaporized="end"/>
    <tripinfo id="lane-reduction_veh_0022" depart="165.00" departLane="edge_001_1" departPos="5.10" departSpeed="8.12" departDelay="0.00" arrival="-1.00" arrivalLane="" arrivalPos="-1.00" arrivalSpeed="-1.00" duration="735.00" routeLength="4262.59" waitingTime="0.00" waitingCount="0" stopTime="0.00" timeLoss="115.97" rerouteNo="0" devices="tripinfo_lane-reduction_veh_0022" vType="passenger" speedFactor="0.97" vaporized="end"/>
    <tripinfo id="lane-reduction_veh_0023" depart="173.00" departLane="edge_001_1" departPos="5.10" departSpeed="7.41" departDelay="0.50" arrival="-1.00" arrivalLane="" arrivalPos="-1.00" arrivalSpeed="-1.00" duration="727.00" routeLength="3926.94" waitingTime="0.00" waitingCount="0" stopTime="0.00" timeLoss="93.86" rerouteNo="0" devices="tripinfo_lane-reduction_veh_0023" vType="passenger" speedFactor="0.89" vaporized="end"/>
    <tripinfo id="lane-reduction_veh_0024" depart="180.00" departLane="edge_001_1" departPos="5.10" departSpeed="6.88" departDelay="0.00" arrival="-1.00" arrivalLane="" arrivalPos="-1.00" arrivalSpeed="-1.00" duration="720.00" routeLength="3625.12" waitingTime="0.00" waitingCount="0" stopTime="0.00" timeLoss="97.10" rerouteNo="0" devices="tripinfo_lane-reduction_veh_0024" vType="passenger" speedFactor="0.83" vaporized="end"/>
    <tripinfo id="lane-reduction_veh_0025" depart="188.00" departLane="edge_001_1" departPos="5.10" departSpeed="7.27" departDelay="0.50" arrival="-1.00" arrivalLane="" arrivalPos="-1.00" arrivalSpeed="-1.00" duration="712.00" routeLength="3709.32" waitingTime="0.00" waitingCount="0" stopTime="0.00" timeLoss="96.72" rerouteNo="0" devices="tripinfo_lane-reduction_veh_0025" vType="passenger" speedFactor="0.87" vaporized="end"/>
    <tripinfo id="lane-reduction_veh_0026" depart="195.00" departLane="edge_001_1" departPos="5.10" departSpeed="7.64" departDelay="0.00" arrival="-1.00" arrivalLane="" arrivalPos="-1.00" arrivalSpeed="-1.00" duration="705.00" routeLength="4031.72" waitingTime="0.00" waitingCount="0" stopTime="0.00" timeLoss="77.09" rerouteNo="0" devices="tripinfo_lane-reduction_veh_0026" vType="passenger" speedFactor="0.92" vaporized="end"/>
    <tripinfo id="lane-reduction_veh_0027" depart="203.00" departLane="edge_001_1" departPos="5.10" departSpeed="7.90" departDelay="0.50" arrival="-1.00" arrivalLane="" arrivalPos="-1.00" arrivalSpeed="-1.00" duration="697.00" routeLength="4141.85" waitingTime="0.00" waitingCount="0" stopTime="0.00" timeLoss="76.01" rerouteNo="0" devices="tripinfo_lane-reduction_veh_0027" vType="passenger" speedFactor="0.95" vaporized="end"/>
    <tripinfo id="lane-reduction_veh_0028" depart="210.00" departLane="edge_001_1" departPos="5.10" departSpeed="9.43" departDelay="0.00" arrival="-1.00" arrivalLane="" arrivalPos="-1.00" arrivalSpeed="-1.00" duration="690.00" routeLength="4245.13" waitingTime="0.00" waitingCount="0" stopTime="0.00" timeLoss="157.77" rerouteNo="0" devices="tripinfo_lane-reduction_veh_0028" vType="passenger" speedFactor="1.13" vaporized="end"/>
    <tripinfo id="lane-reduction_veh_0029" depart="218.00" departLane="edge_001_0" departPos="5.10" departSpeed="7.76" departDelay="0.50" arrival="-1.00" arrivalLane="" arrivalPos="-1.00" arrivalSpeed="-1.00" duration="682.00" routeLength="3856.90" waitingTime="0.00" waitingCount="0" stopTime="0.00" timeLoss="86.34" rerouteNo="0" devices="tripinfo_lane-reduction_veh_0029" vType="passenger" speedFactor="0.93" vaporized="end"/>
    <tripinfo id="lane-reduction_veh_0030" depart="225.00" departLane="edge_001_1" departPos="5.10" departSpeed="9.82" departDelay="0.00" arrival="-1.00" arrivalLane="" arrivalPos="-1.00" arrivalSpeed="-1.00" duration="675.00" routeLength="4368.90" waitingTime="0.00" waitingCount="0" stopTime="0.00" timeLoss="152.26" rerouteNo="0" devices="tripinfo_lane-reduction_veh_0030" vType="passenger" speedFactor="1.18" vaporized="end"/>
    <tripinfo id="lane-reduction_veh_0031" depart="233.00" departLane="edge_001_0" departPos="5.10" departSpeed="9.62" departDelay="0.50" arrival="-1.00" arrivalLane="" arrivalPos="-1.00" arrivalSpeed="-1.00" duration="667.00" routeLength="4268.28" waitingTime="0.00" waitingCount="0" stopTime="0.00" timeLoss="143.68" rerouteNo="0" devices="tripinfo_lane-reduction_veh_0031" vType="passenger" speedFactor="1.15" vaporized="end"/>
    <tripinfo id="lane-reduction_veh_0032" depart="240.00" departLane="edge_001_1" departPos="5.10" departSpeed="8.37" departDelay="0.00" arrival="-1.00" arrivalLane="" arrivalPos="-1.00" arrivalSpeed="-1.00" duration="660.00" routeLength="3698.85" waitingTime="0.00" waitingCount="0" stopTime="0.00" timeLoss="128.99" rerouteNo="0" devices="tripinfo_lane-reduction_veh_0032" vType="passenger" speedFactor="1.01" vaporized="end"/>
    <tripinfo id="lane-reduction_veh_0033" depart="248.00" departLane="edge_001_1" departPos="5.10" departSpeed="9.76" departDelay="0.50" arrival="-1.00" arrivalLane="" arrivalPos="-1.00" arrivalSpeed="-1.00" duration="652.00" routeLength="3964.77" waitingTime="0.00" waitingCount="0" stopTime="0.00" timeLoss="167.52" rerouteNo="0" devices="tripinfo_lane-reduction_veh_0033" vType="passenger" speedFactor="1.17" vaporized="end"/>
    <tripinfo id="lane-reduction_veh_0034" depart="255.00" departLane="edge_001_0" departPos="5.10" departSpeed="8.29" departDelay="0.00" arrival="-1.00" arrivalLane="" arrivalPos="-1.00" arrivalSpeed="-1.00" duration="645.00" routeLength="3664.84" waitingTime="0.00" waitingCount="0" stopTime="0.00" timeLoss="117.34" rerouteNo="0" devices="tripinfo_lane-reduction_veh_0034" vType="passenger" speedFactor="0.99" vaporized="end"/>
    <tripinfo id="lane-reduction_veh_0035" depart="263.00" departLane="edge_001_1" departPos="5.10" departSpeed="8.49" departDelay="0.50" arrival="-1.00" arrivalLane="" arrivalPos="-1.00" arrivalSpeed="-1.00" duration="637.00" routeLength="3675.96" waitingTime="0.00" waitingCount="0" stopTime="0.00" timeLoss="119.30" rerouteNo="0" devices="tripinfo_lane-reduction_veh_0035" vType="passenger" speedFactor="1.02" vaporized="end"/>
    <tripinfo id="lane-reduction_veh_0036" depart="270.00" departLane="edge_001_1" departPos="5.10" departSpeed="8.11" departDelay="0.00" arrival="-1.00" arrivalLane="" arrivalPos="-1.00" arrivalSpeed="-1.00" duration="630.00" routeLength="3613.67" waitingTime="0.00" waitingCount="0" stopTime="0.00" timeLoss="104.09" rerouteNo="0" devices="tripinfo_lane-reduction_veh_0036" vType="passenger" speedFactor="0.97" vaporized="end"/>
    <tripinfo id="lane-reduction_veh_0037" depart="278.00" departLane="edge_001_1" departPos="5.10" departSpeed="9.83" departDelay="0.50" arrival="-1.00" arrivalLane="" arrivalPos="-1.00" arrivalSpeed="-1.00" duration="622.00" routeLength="3942.41" waitingTime="0.00" waitingCount="0" stopTime="0.00" timeLoss="143.23" rerouteNo="0" devices="tripinfo_lane-reduction_veh_0037" vType="passenger" speedFactor="1.18" vaporized="end"/>
    <tripinfo id="lane-reduction_veh_0038" depart="285.00" departLane="edge_001_0" departPos="5.10" departSpeed="9.18" departDelay="0.00" arrival="-1.00" arrivalLane="" arrivalPos="-1.00" arrivalSpeed="-1.00" duration="615.00" routeLength="3687.45" waitingTime="0.00" waitingCount="0" stopTime="0.00" timeLoss="132.63" rerouteNo="0" devices="tripinfo_lane-reduction_veh_0038" vType="passenger" speedFactor="1.10" vaporized="end"/>
    <tripinfo id="lane-reduction_veh_0039" depart="293.00" departLane="edge_001_1" departPos="5.10" departSpeed="7.50" departDelay="0.50" arrival="-1.00" arrivalLane="" arrivalPos="-1.00" arrivalSpeed="-1.00" duration="607.00" routeLength="3512.63" waitingTime="0.00" waitingCount="0" stopTime="0.00" timeLoss="69.43" rerouteNo="0" devices="tripinfo_lane-reduction_veh_0039" vType="passenger" speedFactor="0.90" vaporized="end"/>
    <tripinfo id="lane-reduction_veh_0040" depart="300.00" departLane="edge_001_1" departPos="5.10" departSpeed="8.58" departDelay="0.00" arrival="-1.00" arrivalLane="" arrivalPos="-1.00" arrivalSpeed="-1.00" duration="600.00" routeLength="3591.91" waitingTime="0.00" waitingCount="0" stopTime="0.00" timeLoss="108.95" rerouteNo="0" devices="tripinfo_lane-reduction_veh_0040" vType="passenger" speedFactor="1.03" vaporized="end"/>
    <tripinfo id="lane-reduction_veh_0041" depart="308.00" departLane="edge_001_0" departPos="5.10" departSpeed="7.97" departDelay="0.50" arrival="-1.00" arrivalLane="" arrivalPos="-1.00" arrivalSpeed="-1.00" duration="592.00" routeLength="3549.82" waitingTime="0.00" waitingCount="0" stopTime="0.00" timeLoss="75.44" rerouteNo="0" devices="tripinfo_lane-reduction_veh_0041" vType="passenger" speedFactor="0.96" vaporized="end"/>
    <tripinfo id="lane-reduction_veh_0042" depart="315.00" departLane="edge_001_1" departPos="5.10" departSpeed="9.10" departDelay="0.00" arrival="-1.00" arrivalLane="" arrivalPos="-1.00" arrivalSpeed="-1.00" duration="585.00" routeLength="3603.89" waitingTime="0.00" waitingCount="0" stopTime="0.00" timeLoss="118.80" rerouteNo="0" devices="tripinfo_lane-reduction_veh_0042" vType="passenger" speedFactor="1.09" vaporized="end"/>
    <tripinfo id="lane-reduction_veh_0043" depart="323.00" departLane="edge_001_0" departPos="5.10" departSpeed="8.64" departDelay="0.50" arrival="-1.00" arrivalLane="" arrivalPos="-1.00" arrivalSpeed="-1.00" duration="577.00" routeLength="3582.27" waitingTime="0.00" waitingCount="0" stopTime="0.00" timeLoss="92.20" rerouteNo="0" devices="tripinfo_lane-reduction_veh_0043" vType="passenger" speedFactor="1.04" vaporized="end"/>
    <tripinfo id="lane-reduction_veh_0044" depart="330.00" departLane="edge_001_1" departPos="5.10" departSpeed="8.69" departDelay="0.00" arrival="-1.00" arrivalLane="" arrivalPos="-1.00" arrivalSpeed="-1.00" duration="570.00" routeLength="3560.53" waitingTime="0.00" waitingCount="0" stopTime="0.00" timeLoss="93.63" rerouteNo="0" devices="tripinfo_lane-reduction_veh_0044" vType="passenger" speedFactor="1.04" vaporized="end"/>
    <tripinfo id="lane-reduction_veh_0045" depart="338.00" departLane="edge_001_1" departPos="5.10" departSpeed="9.06" departDelay="0.50" arrival="-1.00" arrivalLane="" arrivalPos="-1.00" arrivalSpeed="-1.00" duration="562.00" routeLength="3572.79" waitingTime="0.00" waitingCount="0" stopTime="0.00" timeLoss="102.05" rerouteNo="0" devices="tripinfo_lane-reduction_veh_0045" vType="passenger" speedFactor="1.09" vaporized="end"/>
    <tripinfo id="lane-reduction_veh_0046" depart="345.00" departLane="edge_001_1" departPos="5.10" departSpeed="8.31" departDelay="0.00" arrival="-1.00" arrivalLane="" arrivalPos="-1.00" arrivalSpeed="-1.00" duration="555.00" routeLength="3502.07" waitingTime="0.00" waitingCount="0" stopTime="0.00" timeLoss="71.99" rerouteNo="0" devices="tripinfo_lane-reduction_veh_0046" vType="passenger" speedFactor="1.00" vaporized="end"/>
    <tripinfo id="lane-reduction_veh_0047" depart="353.00" departLane="edge_001_1" departPos="5.10" departSpeed="7.50" departDelay="0.50" arrival="-1.00" arrivalLane="" arrivalPos="-1.00" arrivalSpeed="-1.00" duration="547.00" routeLength="3345.14" waitingTime="0.00" waitingCount="0" stopTime="0.00" timeLoss="58.46" rerouteNo="0" devices="tripinfo_lane-reduction_veh_0047" vType="passenger" speedFactor="0.90" vaporized="end"/>
    <tripinfo id="lane-reduction_veh_0048" depart="360.00" departLane="edge_001_1" departPos="5.10" departSpeed="7.30" departDelay="0.00" arrival="-1.00" arrivalLane="" arrivalPos="-1.00" arrivalSpeed="-1.00" duration="540.00" routeLength="3280.98" waitingTime="0.00" waitingCount="0" stopTime="0.00" timeLoss="57.89" rerouteNo="0" devices="tripinfo_lane-reduction_veh_0048" vType="passenger" speedFactor="0.88" vaporized="end"/>
    <tripinfo id="lane-reduction_veh_0049" depart="368.00" departLane="edge_001_1" departPos="5.10" departSpeed="7.08" departDelay="0.50" arrival="-1.00" arrivalLane="" arrivalPos="-1.00" arrivalSpeed="-1.00" duration="532.00" routeLength="3213.76" waitingTime="0.00" waitingCount="0" stopTime="0.00" timeLoss="56.26" rerouteNo="0" devices="tripinfo_lane-reduction_veh_0049" vType="passenger" speedFactor="0.85" vaporized="end"/>
    <tripinfo id="lane-reduction_veh_0050" depart="375.00" departLane="edge_001_1" departPos="5.10" departSpeed="7.12" departDelay="0.00" arrival="-1.00" arrivalLane="" arrivalPos="-1.00" arrivalSpeed="-1.00" duration="525.00" routeLength="3202.05" waitingTime="0.00" waitingCount="0" stopTime="0.00" timeLoss="54.89" rerouteNo="0" devices="tripinfo_lane-reduction_veh_0050" vType="passenger" speedFactor="0.85" vaporized="end"/>
    <tripinfo id="lane-reduction_veh_0051" depart="383.00" departLane="edge_001_1" departPos="5.10" departSpeed="9.74" departDelay="0.50" arrival="-1.00" arrivalLane="" arrivalPos="-1.00" arrivalSpeed="-1.00" duration="517.00" routeLength="3539.56" waitingTime="0.00" waitingCount="0" stopTime="0.00" timeLoss="96.36" rerouteNo="0" devices="tripinfo_lane-reduction_veh_0051" vType="passenger" speedFactor="1.17" vaporized="end"/>
    <tripinfo id="lane-reduction_veh_0052" depart="390.00" departLane="edge_001_0" departPos="5.10" departSpeed="8.47" departDelay="0.00" arrival="-1.00" arrivalLane="" arrivalPos="-1.00" arrivalSpeed="-1.00" duration="510.00" routeLength="3445.12" waitingTime="0.00" waitingCount="0" stopTime="0.00" timeLoss="51.33" rerouteNo="0" devices="tripinfo_lane-reduction_veh_0052" vType="passenger" speedFactor="1.02" vaporized="end"/>
    <tripinfo id="lane-reduction_veh_0053" depart="398.00" departLane="edge_001_1" departPos="5.10" departSpeed="9.13" departDelay="0.50" arrival="-1.00" arrivalLane="" arrivalPos="-1.00" arrivalSpeed="-1.00" duration="502.00" routeLength="3490.63" waitingTime="0.00" waitingCount="0" stopTime="0.00" timeLoss="65.39" rerouteNo="0" devices="tripinfo_lane-reduction_veh_0053" vType="passenger" speedFactor="1.10" vaporized="end"/>
    <tripinfo id="lane-reduction_veh_0054" depart="405.00" departLane="edge_001_0" departPos="5.10" departSpeed="8.36" departDelay="0.00" arrival="-1.00" arrivalLane="" arrivalPos="-1.00" arrivalSpeed="-1.00" duration="495.00" routeLength="3334.37" waitingTime="0.00" waitingCount="0" stopTime="0.00" timeLoss="59.53" rerouteNo="0" devices="tripinfo_lane-reduction_veh_0054" vType="passenger" speedFactor="1.00" vaporized="end"/>
    <tripinfo id="lane-reduction_veh_0055" depart="413.00" departLane="edge_001_1" departPos="5.10" departSpeed="8.30" departDelay="0.50" arrival="-1.00" arrivalLane="" arrivalPos="-1.00" arrivalSpeed="-1.00" duration="487.00" routeLength="3269.72" waitingTime="0.00" waitingCount="0" stopTime="0.00" timeLoss="65.97" rerouteNo="0" devices="tripinfo_lane-reduction_veh_0055" vType="passenger" speedFactor="1.00" vaporized="end"/>
    <tripinfo id="lane-reduction_veh_0056" depart="420.00" departLane="edge_001_1" departPos="5.10" departSpeed="7.49" departDelay="0.00" arrival="-1.00" arrivalLane="" arrivalPos="-1.00" arrivalSpeed="-1.00" duration="480.00" routeLength="3158.97" waitingTime="0.00" waitingCount="0" stopTime="0.00" timeLoss="45.45" rerouteNo="0" devices="tripinfo_lane-reduction_veh_0056" vType="passenger" speedFactor="0.90" vaporized="end"/>
    <tripinfo id="lane-reduction_veh_0057" depart="428.00" departLane="edge_001_1" departPos="5.10" departSpeed="9.52" departDelay="0.50" arrival="-1.00" arrivalLane="" arrivalPos="-1.00" arrivalSpeed="-1.00" duration="472.00" routeLength="3480.40" waitingTime="0.00" waitingCount="0" stopTime="0.00" timeLoss="55.20" rerouteNo="0" devices="tripinfo_lane-reduction_veh_0057" vType="passenger" speedFactor="1.14" vaporized="end"/>
    <tripinfo id="lane-reduction_veh_0058" depart="435.00" departLane="edge_001_0" departPos="5.10" departSpeed="8.53" departDelay="0.00" arrival="-1.00" arrivalLane="" arrivalPos="-1.00" arrivalSpeed="-1.00" duration="465.00" routeLength="3237.97" waitingTime="0.00" waitingCount="0" stopTime="0.00" timeLoss="63.55" rerouteNo="0" devices="tripinfo_lane-reduction_veh_0058" vType="passenger" speedFactor="1.02" vaporized="end"/>
    <tripinfo id="lane-reduction_veh_0059" depart="443.00" departLane="edge_001_1" departPos="5.10" departSpeed="8.08" departDelay="0.50" arrival="-1.00" arrivalLane="" arrivalPos="-1.00" arrivalSpeed="-1.00" duration="457.00" routeLength="3191.60" waitingTime="0.00" waitingCount="0" stopTime="0.00" timeLoss="45.66" rerouteNo="0" devices="tripinfo_lane-reduction_veh_0059" vType="passenger" speedFactor="0.97" vaporized="end"/>
    <tripinfo id="lane-reduction_veh_0060" depart="450.00" departLane="edge_001_1" departPos="5.10" departSpeed="9.02" departDelay="0.00" arrival="-1.00" arrivalLane="" arrivalPos="-1.00" arrivalSpeed="-1.00" duration="450.00" routeLength="3259.93" waitingTime="0.00" waitingCount="0" stopTime="0.00" timeLoss="64.53" rerouteNo="0" devices="tripinfo_lane-reduction_veh_0060" vType="passenger" speedFactor="1.08" vaporized="end"/>
    <tripinfo id="lane-reduction_veh_0061" depart="458.00" departLane="edge_001_0" departPos="5.10" departSpeed="9.32" departDelay="0.50" arrival="-1.00" arrivalLane="" arrivalPos="-1.00" arrivalSpeed="-1.00" duration="442.00" routeLength="3248.86" waitingTime="0.00" waitingCount="0" stopTime="0.00" timeLoss="71.95" rerouteNo="0" devices="tripinfo_lane-reduction_veh_0061" vType="passenger" speedFactor="1.12" vaporized="end"/>
    <tripinfo id="lane-reduction_veh_0062" depart="465.00" departLane="edge_001_1" departPos="5.10" departSpeed="8.46" departDelay="0.00" arrival="-1.00" arrivalLane="" arrivalPos="-1.00" arrivalSpeed="-1.00" duration="435.00" routeLength="3181.87" waitingTime="0.00" waitingCount="0" stopTime="0.00" timeLoss="44.88" rerouteNo="0" devices="tripinfo_lane-reduction_veh_0062" vType="passenger" speedFactor="1.02" vaporized="end"/>
    <tripinfo id="lane-reduction_veh_0063" depart="473.00" departLane="edge_001_1" departPos="5.10" departSpeed="8.22" departDelay="0.50" arrival="-1.00" arrivalLane="" arrivalPos="-1.00" arrivalSpeed="-1.00" duration="427.00" routeLength="3140.39" waitingTime="0.00" waitingCount="0" stopTime="0.00" timeLoss="36.92" rerouteNo="0" devices="tripinfo_lane-reduction_veh_0063" vType="passenger" speedFactor="0.99" vaporized="end"/>
    <tripinfo id="lane-reduction_veh_0064" depart="480.00" departLane="edge_001_1" departPos="5.10" departSpeed="7.81" departDelay="0.00" arrival="-1.00" arrivalLane="" arrivalPos="-1.00" arrivalSpeed="-1.00" duration="420.00" routeLength="2975.67" waitingTime="0.00" waitingCount="0" stopTime="0.00" timeLoss="37.64" rerouteNo="0" devices="tripinfo_lane-reduction_veh_0064" vType="passenger" speedFactor="0.94" vaporized="end"/>