<?xml version="1.0" encoding="UTF-8"?>

<!-- generated on 2026-04-17 17:08:57 by Eclipse SUMO sumo Version 1.18.0
<configuration xmlns:xsi="http://www.w3.org/2001/XMLSchema-instance" xsi:noNamespaceSchemaLocation="http://sumo.dlr.de/xsd/sumoConfiguration.xsd">

    <input>
        <net-file value="/home/sherif453/code/alex-mobility/data/exports/scenarios/sumo-scenarios-20260417T150843Z/detour-mitigation/network.net.xml"/>
        <route-files value="/home/sherif453/code/alex-mobility/data/exports/scenarios/sumo-scenarios-20260417T150843Z/detour-mitigation/routes.rou.xml"/>
        <additional-files value="/home/sherif453/code/alex-mobility/data/exports/scenarios/sumo-scenarios-20260417T150843Z/detour-mitigation/additional.add.xml"/>
    </input>

    <output>
        <queue-output value="/home/sherif453/code/alex-mobility/data/exports/scenarios/sumo-scenarios-20260417T150843Z/detour-mitigation/queue.xml"/>
        <queue-output.period value="60"/>
        <summary-output value="/home/sherif453/code/alex-mobility/data/exports/scenarios/sumo-scenarios-20260417T150843Z/detour-mitigation/summary.xml"/>
        <tripinfo-output value="/home/sherif453/code/alex-mobility/data/exports/scenarios/sumo-scenarios-20260417T150843Z/detour-mitigation/tripinfo.xml"/>
        <tripinfo-output.write-unfinished value="true"/>
    </output>

    <time>
        <begin value="0"/>
        <end value="900"/>
    </time>

    <report>
        <no-step-log value="true"/>
    </report>

    <gui_only>
        <quit-on-end value="true"/>
    </gui_only>

</configuration>
-->

<tripinfos xmlns:xsi="http://www.w3.org/2001/XMLSchema-instance" xsi:noNamespaceSchemaLocation="http://sumo.dlr.de/xsd/tripinfo_file.xsd">
    <tripinfo id="detour-mitigation_veh_0000" depart="0.00" departLane="edge_001_0" departPos="5.10" departSpeed="8.83" departDelay="0.00" arrival="-1.00" arrivalLane="" arrivalPos="-1.00" arrivalSpeed="-1.00" duration="900.00" routeLength="6937.33" waitingTime="0.00" waitingCount="0" stopTime="0.00" timeLoss="75.75" rerouteNo="0" devices="tripinfo_detour-mitigation_veh_0000" vType="passenger" speedFactor="1.06" vaporized="end"/>
    <tripinfo id="detour-mitigation_veh_0001" depart="10.00" departLane="edge_001_1" departPos="5.10" departSpeed="7.82" departDelay="0.82" arrival="-1.00" arrivalLane="" arrivalPos="-1.00" arrivalSpeed="-1.00" duration="890.00" routeLength="5973.64" waitingTime="0.00" waitingCount="0" stopTime="0.00" timeLoss="81.21" rerouteNo="0" devices="tripinfo_detour-mitigation_veh_0001" vType="passenger" speedFactor="0.94" vaporized="end"/>
    <tripinfo id="detour-mitigation_veh_0002" depart="19.00" departLane="edge_001_1" departPos="5.10" departSpeed="8.42" departDelay="0.63" arrival="-1.00" arrivalLane="" arrivalPos="-1.00" arrivalSpeed="-1.00" duration="881.00" routeLength="6438.88" waitingTime="0.00" waitingCount="0" stopTime="0.00" timeLoss="75.22" rerouteNo="0" devices="tripinfo_detour-mitigation_veh_0002" vType="passenger" speedFactor="1.01" vaporized="end"/>
    <tripinfo id="detour-mitigation_veh_0003" depart="28.00" departLane="edge_001_1" departPos="5.10" departSpeed="9.02" departDelay="0.45" arrival="-1.00" arrivalLane="" arrivalPos="-1.00" arrivalSpeed="-1.00" duration="872.00" routeLength="6896.26" waitingTime="0.00" waitingCount="0" stopTime="0.00" timeLoss="69.09" rerouteNo="0" devices="tripinfo_detour-mitigation_veh_0003" vType="passenger" speedFactor="1.08" vaporized="end"/>
    <tripinfo id="detour-mitigation_veh_0004" depart="37.00" departLane="edge_001_1" departPos="5.10" departSpeed="8.58" departDelay="0.27" arrival="-1.00" arrivalLane="" arrivalPos="-1.00" arrivalSpeed="-1.00" duration="863.00" routeLength="6469.23" waitingTime="0.00" waitingCount="0" stopTime="0.00" timeLoss="69.56" rerouteNo="0" devices="tripinfo_detour-mitigation_veh_0004" vType="passenger" speedFactor="1.03" vaporized="end"/>
    <tripinfo id="detour-mitigation_veh_0005" depart="46.00" departLane="edge_001_1" departPos="5.10" departSpeed="6.92" departDelay="0.08" arrival="-1.00" arrivalLane="" arrivalPos="-1.00" arrivalSpeed="-1.00" duration="854.00" routeLength="4932.00" waitingTime="0.00" waitingCount="0" stopTime="0.00" timeLoss="91.78" rerouteNo="0" devices="tripinfo_detour-mitigation_veh_0005" vType="passenger" speedFactor="0.83" vaporized="end"/>
    <tripinfo id="detour-mitigation_veh_0006" depart="56.00" departLane="edge_001_1" departPos="5.10" departSpeed="8.71" departDelay="0.90" arrival="-1.00" arrivalLane="" arrivalPos="-1.00" arrivalSpeed="-1.00" duration="844.00" routeLength="6240.34" waitingTime="0.00" waitingCount="0" stopTime="0.00" timeLoss="88.11" rerouteNo="0" devices="tripinfo_detour-mitigation_veh_0006" vType="passenger" speedFactor="1.05" vaporized="end"/>
    <tripinfo id="detour-mitigation_veh_0007" depart="65.00" departLane="edge_001_0" departPos="5.10" departSpeed="7.38" departDelay="0.71" arrival="-1.00" arrivalLane="" arrivalPos="-1.00" arrivalSpeed="-1.00" duration="835.00" routeLength="5208.63" waitingTime="0.00" waitingCount="0" stopTime="0.00" timeLoss="83.07" rerouteNo="0" devices="tripinfo_detour-mitigation_veh_0007" vType="passenger" speedFactor="0.89" vaporized="end"/>
    <tripinfo id="detour-mitigation_veh_0008" depart="74.00" departLane="edge_001_1" departPos="5.10" departSpeed="7.81" departDelay="0.53" arrival="-1.00" arrivalLane="" arrivalPos="-1.00" arrivalSpeed="-1.00" duration="826.00" routeLength="5408.99" waitingTime="0.00" waitingCount="0" stopTime="0.00" timeLoss="89.36" rerouteNo="0" devices="tripinfo_detour-mitigation_veh_0008" vType="passenger" speedFactor="0.94" vaporized="end"/>
    <tripinfo id="detour-mitigation_veh_0009" depart="83.00" departLane="edge_001_1" departPos="5.10" departSpeed="7.14" departDelay="0.35" arrival="-1.00" arrivalLane="" arrivalPos="-1.00" arrivalSpeed="-1.00" duration="817.00" routeLength="4878.28" waitingTime="0.00" waitingCount="0" stopTime="0.00" timeLoss="85.90" rerouteNo="0" devices="tripinfo_detour-mitigation_veh_0009" vType="passenger" speedFactor="0.86" vaporized="end"/>
    <tripinfo id="detour-mitigation_veh_0010" depart="92.00" departLane="edge_001_1" departPos="5.10" departSpeed="9.09" departDelay="0.16" arrival="-1.00" arrivalLane="" arrivalPos="-1.00" arrivalSpeed="-1.00" duration="808.00" routeLength="6325.06" waitingTime="0.00" waitingCount="0" stopTime="0.00" timeLoss="73.69" rerouteNo="0" devices="tripinfo_detour-mitigation_veh_0010" vType="passenger" speedFactor="1.09" vaporized="end"/>
    <tripinfo id="detour-mitigation_veh_0011" depart="102.00" departLane="edge_001_0" departPos="5.10" departSpeed="8.55" departDelay="0.98" arrival="-1.00" arrivalLane="" arrivalPos="-1.00" arrivalSpeed="-1.00" duration="798.00" routeLength="5842.85" waitingTime="0.00" waitingCount="0" stopTime="0.00" timeLoss="74.51" rerouteNo="0" devices="tripinfo_detour-mitigation_veh_0011" vType="passenger" speedFactor="1.03" vaporized="end"/>
    <tripinfo id="detour-mitigation_veh_0012" depart="111.00" departLane="edge_001_1" departPos="5.10" departSpeed="8.72" departDelay="0.80" arrival="-1.00" arrivalLane="" arrivalPos="-1.00" arrivalSpeed="-1.00" duration="789.00" routeLength="5950.86" waitingTime="0.00" waitingCount="0" stopTime="0.00" timeLoss="67.46" rerouteNo="0" devices="tripinfo_detour-mitigation_veh_0012" vType="passenger" speedFactor="1.05" vaporized="end"/>
    <tripinfo id="detour-mitigation_veh_0013" depart="120.00" departLane="edge_001_1" departPos="5.10" departSpeed="9.35" departDelay="0.61" arrival="-1.00" arrivalLane="" arrivalPos="-1.00" arrivalSpeed="-1.00" duration="780.00" routeLength="6339.43" waitingTime="0.00" waitingCount="0" stopTime="0.00" timeLoss="65.84" rerouteNo="0" devices="tripinfo_detour-mitigation_veh_0013" vType="passenger" speedFactor="1.12" vaporized="end"/>
    <tripinfo id="detour-mitigation_veh_0014" depart="129.00" departLane="edge_001_1" departPos="5.10" departSpeed="8.26" departDelay="0.43" arrival="-1.00" arrivalLane="" arrivalPos="-1.00" arrivalSpeed="-1.00" duration="771.00" routeLength="5169.57" waitingTime="0.00" waitingCount="0" stopTime="0.00" timeLoss="103.25" rerouteNo="0" devices="tripinfo_detour-mitigation_veh_0014" vType="passenger" speedFactor="0.99" vaporized="end"/>
    <tripinfo id="detour-mitigation_veh_0015" depart="138.00" departLane="edge_001_1" departPos="5.10" departSpeed="7.72" departDelay="0.24" arrival="-1.00" arrivalLane="" arrivalPos="-1.00" arrivalSpeed="-1.00" duration="762.00" routeLength="4953.28" waitingTime="0.00" waitingCount="0" stopTime="0.00" timeLoss="76.25" rerouteNo="0" devices="tripinfo_detour-mitigation_veh_0015" vType="passenger" speedFactor="0.93" vaporized="end"/>
    <tripinfo id="detour-mitigation_veh_0016" depart="147.00" departLane="edge_001_1" departPos="5.10" departSpeed="7.32" departDelay="0.06" arrival="-1.00" arrivalLane="" arrivalPos="-1.00" arrivalSpeed="-1.00" duration="753.00" routeLength="4623.98" waitingTime="0.00" waitingCount="0" stopTime="0.00" timeLoss="74.58" rerouteNo="0" devices="tripinfo_detour-mitigation_veh_0016" vType="passenger" speedFactor="0.88" vaporized="end"/>
    <tripinfo id="detour-mitigation_veh_0017" depart="157.00" departLane="edge_001_1" departPos="5.10" departSpeed="7.84" departDelay="0.88" arrival="-1.00" arrivalLane="" arrivalPos="-1.00" arrivalSpeed="-1.00" duration="743.00" routeLength="4932.40" waitingTime="0.00" waitingCount="0" stopTime="0.00" timeLoss="70.69" rerouteNo="0" devices="tripinfo_detour-mitigation_veh_0017" vType="passenger" speedFactor="0.94" vaporized="end"/>
    <tripinfo id="detour-mitigation_veh_0018" depart="166.00" departLane="edge_001_1" departPos="5.10" departSpeed="7.80" departDelay="0.69" arrival="-1.00" arrivalLane="" arrivalPos="-1.00" arrivalSpeed="-1.00" duration="734.00" routeLength="4841.80" waitingTime="0.00" waitingCount="0" stopTime="0.00" timeLoss="68.97" rerouteNo="0" devices="tripinfo_detour-mitigation_veh_0018" vType="passenger" speedFactor="0.94" vaporized="end"/>
    <tripinfo id="detour-mitigation_veh_0019" depart="175.00" departLane="edge_001_1" departPos="5.10" departSpeed="9.65" departDelay="0.51" arrival="-1.00" arrivalLane="" arrivalPos="-1.00" arrivalSpeed="-1.00" duration="725.00" routeLength="5683.00" waitingTime="0.00" waitingCount="0" stopTime="0.00" timeLoss="100.57" rerouteNo="0" devices="tripinfo_detour-mitigation_veh_0019" vType="passenger" speedFactor="1.16" vaporized="end"/>
    <tripinfo id="detour-mitigation_veh_0020" depart="184.00" departLane="edge_001_0" departPos="5.10" departSpeed="8.48" departDelay="0.33" arrival="-1.00" arrivalLane="" arrivalPos="-1.00" arrivalSpeed="-1.00" duration="716.00" routeLength="5042.70" waitingTime="0.00" waitingCount="0" stopTime="0.00" timeLoss="81.26" rerouteNo="0" devices="tripinfo_detour-mitigation_veh_0020" vType="passenger" speedFactor="1.02" vaporized="end"/>
    <tripinfo id="detour-mitigation_veh_0021" depart="193.00" departLane="edge_001_1" departPos="5.10" departSpeed="8.41" departDelay="0.14" arrival="-1.00" arrivalLane="" arrivalPos="-1.00" arrivalSpeed="-1.00" duration="707.00" routeLength="4999.91" waitingTime="0.00" waitingCount="0" stopTime="0.00" timeLoss="71.84" rerouteNo="0" devices="tripinfo_detour-mitigation_veh_0021" vType="passenger" speedFactor="1.01" vaporized="end"/>
    <tripinfo id="detour-mitigation_veh_0022" depart="203.00" departLane="edge_001_1" departPos="5.10" departSpeed="8.12" departDelay="0.96" arrival="-1.00" arrivalLane="" arrivalPos="-1.00" arrivalSpeed="-1.00" duration="697.00" routeLength="4708.32" waitingTime="0.00" waitingCount="0" stopTime="0.00" timeLoss="74.78" rerouteNo="0" devices="tripinfo_detour-mitigation_veh_0022" vType="passenger" speedFactor="0.97" vaporized="end"/>
    <tripinfo id="detour-mitigation_veh_0023" depart="212.00" departLane="edge_001_1" departPos="5.10" departSpeed="7.41" departDelay="0.78" arrival="-1.00" arrivalLane="" arrivalPos="-1.00" arrivalSpeed="-1.00" duration="688.00" routeLength="4236.83" waitingTime="0.00" waitingCount="0" stopTime="0.00" timeLoss="69.97" rerouteNo="0" devices="tripinfo_detour-mitigation_veh_0023" vType="passenger" speedFactor="0.89" vaporized="end"/>
    <tripinfo id="detour-mitigation_veh_0024" depart="221.00" departLane="edge_001_1" departPos="5.10" departSpeed="6.88" departDelay="0.59" arrival="-1.00" arrivalLane="" arrivalPos="-1.00" arrivalSpeed="-1.00" duration="679.00" routeLength="3836.02" waitingTime="0.00" waitingCount="0" stopTime="0.00" timeLoss="71.58" rerouteNo="0" devices="tripinfo_detour-mitigation_veh_0024" vType="passenger" speedFactor="0.83" vaporized="end"/>
    <tripinfo id="detour-mitigation_veh_0025" depart="230.00" departLane="edge_001_1" departPos="5.10" departSpeed="7.27" departDelay="0.41" arrival="-1.00" arrivalLane="" arrivalPos="-1.00" arrivalSpeed="-1.00" duration="670.00" routeLength="4001.53" waitingTime="0.00" waitingCount="0" stopTime="0.00" timeLoss="72.81" rerouteNo="0" devices="tripinfo_detour-mitigation_veh_0025" vType="passenger" speedFactor="0.87" vaporized="end"/>
    <tripinfo id="detour-mitigation_veh_0026" depart="239.00" departLane="edge_001_1" departPos="5.10" departSpeed="7.64" departDelay="0.22" arrival="-1.00" arrivalLane="" arrivalPos="-1.00" arrivalSpeed="-1.00" duration="661.00" routeLength="4189.89" waitingTime="0.00" waitingCount="0" stopTime="0.00" timeLoss="68.10" rerouteNo="0" devices="tripinfo_detour-mitigation_veh_0026" vType="passenger" speedFactor="0.92" vaporized="end"/>
    <tripinfo id="detour-mitigation_veh_0027" depart="248.00" departLane="edge_001_1" departPos="5.10" departSpeed="7.90" departDelay="0.04" arrival="-1.00" arrivalLane="" arrivalPos="-1.00" arrivalSpeed="-1.00" duration="652.00" routeLength="4228.67" waitingTime="0.00" waitingCount="0" stopTime="0.00" timeLoss="73.60" rerouteNo="0" devices="tripinfo_detour-mitigation_veh_0027" vType="passenger" speedFactor="0.95" vaporized="end"/>
    <tripinfo id="detour-mitigation_veh_0028" depart="258.00" departLane="edge_001_1" departPos="5.10" departSpeed="9.43" departDelay="0.86" arrival="-1.00" arrivalLane="" arrivalPos="-1.00" arrivalSpeed="-1.00" duration="642.00" routeLength="4775.21" waitingTime="0.00" waitingCount="0" stopTime="0.00" timeLoss="99.22" rerouteNo="0" devices="tripinfo_detour-mitigation_veh_0028" vType="passenger" speedFactor="1.13" vaporized="end"/>
    <tripinfo id="detour-mitigation_veh_0029" depart="267.00" departLane="edge_001_0" departPos="5.10" departSpeed="7.76" departDelay="0.67" arrival="-1.00" arrivalLane="" arrivalPos="-1.00" arrivalSpeed="-1.00" duration="633.00" routeLength="3979.77" waitingTime="0.00" waitingCount="0" stopTime="0.00" timeLoss="75.15" rerouteNo="0" devices="tripinfo_detour-mitigation_veh_0029" vType="passenger" speedFactor="0.93" vaporized="end"/>
    <tripinfo id="detour-mitigation_veh_0030" depart="276.00" departLane="edge_001_1" departPos="5.10" departSpeed="9.82" departDelay="0.49" arrival="-1.00" arrivalLane="" arrivalPos="-1.00" arrivalSpeed="-1.00" duration="624.00" routeLength="4843.14" waitingTime="0.00" waitingCount="0" stopTime="0.00" timeLoss="95.89" rerouteNo="0" devices="tripinfo_detour-mitigation_veh_0030" vType="passenger" speedFactor="1.18" vaporized="end"/>
    <tripinfo id="detour-mitigation_veh_0031" depart="285.00" departLane="edge_001_0" departPos="5.10" departSpeed="9.62" departDelay="0.31" arrival="-1.00" arrivalLane="" arrivalPos="-1.00" arrivalSpeed="-1.00" duration="615.00" routeLength="4811.20" waitingTime="0.00" waitingCount="0" stopTime="0.00" timeLoss="78.46" rerouteNo="0" devices="tripinfo_detour-mitigation_veh_0031" vType="passenger" speedFactor="1.15" vaporized="end"/>
    <tripinfo id="detour-mitigation_veh_0032" depart="294.00" departLane="edge_001_1" departPos="5.10" departSpeed="8.37" departDelay="0.12" arrival="-1.00" arrivalLane="" arrivalPos="-1.00" arrivalSpeed="-1.00" duration="606.00" routeLength="4023.40" waitingTime="0.00" waitingCount="0" stopTime="0.00" timeLoss="84.40" rerouteNo="0" devices="tripinfo_detour-mitigation_veh_0032" vType="passenger" speedFactor="1.01" vaporized="end"/>
    <tripinfo id="detour-mitigation_veh_0033" depart="304.00" departLane="edge_001_1" departPos="5.10" departSpeed="9.76" departDelay="0.94" arrival="-1.00" arrivalLane="" arrivalPos="-1.00" arrivalSpeed="-1.00" duration="596.00" routeLength="4394.64" waitingTime="0.00" waitingCount="0" stopTime="0.00" timeLoss="110.35" rerouteNo="0" devices="tripinfo_detour-mitigation_veh_0033" vType="passenger" speedFactor="1.17" vaporized="end"/>
    <tripinfo id="detour-mitigation_veh_0034" depart="313.00" departLane="edge_001_0" departPos="5.10" departSpeed="8.29" departDelay="0.76" arrival="-1.00" arrivalLane="" arrivalPos="-1.00" arrivalSpeed="-1.00" duration="587.00" routeLength="3846.64" waitingTime="0.00" waitingCount="0" stopTime="0.00" timeLoss="80.78" rerouteNo="0" devices="tripinfo_detour-mitigation_veh_0034" vType="passenger" speedFactor="0.99" vaporized="end"/>
    <tripinfo id="detour-mitigation_veh_0035" depart="322.00" departLane="edge_001_1" departPos="5.10" departSpeed="8.49" departDelay="0.57" arrival="-1.00" arrivalLane="" arrivalPos="-1.00" arrivalSpeed="-1.00" duration="578.00" routeLength="3805.60" waitingTime="0.00" waitingCount="0" stopTime="0.00" timeLoss="89.85" rerouteNo="0" devices="tripinfo_detour-mitigation_veh_0035" vType="passenger" speedFactor="1.02" vaporized="end"/>
    <tripinfo id="detour-mitigation_veh_0036" depart="331.00" departLane="edge_001_1" departPos="5.10" departSpeed="8.11" departDelay="0.39" arrival="-1.00" arrivalLane="" arrivalPos="-1.00" arrivalSpeed="-1.00" duration="569.00" routeLength="3778.87" waitingTime="0.00" waitingCount="0" stopTime="0.00" timeLoss="60.97" rerouteNo="0" devices="tripinfo_detour-mitigation_veh_0036" vType="passenger" speedFactor="0.97" vaporized="end"/>
    <tripinfo id="detour-mitigation_veh_0037" depart="340.00" departLane="edge_001_1" departPos="5.10" departSpeed="9.83" departDelay="0.20" arrival="-1.00" arrivalLane="" arrivalPos="-1.00" arrivalSpeed="-1.00" duration="560.00" routeLength="4317.81" waitingTime="0.00" waitingCount="0" stopTime="0.00" timeLoss="85.82" rerouteNo="0" devices="tripinfo_detour-mitigation_veh_0037" vType="passenger" speedFactor="1.18" vaporized="end"/>
    <tripinfo id="detour-mitigation_veh_0038" depart="349.00" departLane="edge_001_0" departPos="5.10" departSpeed="9.18" departDelay="0.02" arrival="-1.00" arrivalLane="" arrivalPos="-1.00" arrivalSpeed="-1.00" duration="551.00" routeLength="3830.38" waitingTime="0.00" waitingCount="0" stopTime="0.00" timeLoss="96.30" rerouteNo="0" devices="tripinfo_detour-mitigation_veh_0038" vType="passenger" speedFactor="1.10" vaporized="end"/>
    <tripinfo id="detour-mitigation_veh_0039" depart="359.00" departLane="edge_001_1" departPos="5.10" departSpeed="7.50" departDelay="0.84" arrival="-1.00" arrivalLane="" arrivalPos="-1.00" arrivalSpeed="-1.00" duration="541.00" routeLength="3471.30" waitingTime="0.00" waitingCount="0" stopTime="0.00" timeLoss="49.71" rerouteNo="0" devices="tripinfo_detour-mitigation_veh_0039" vType="passenger" speedFactor="0.90" vaporized="end"/>
    <tripinfo id="detour-mitigation_veh_0040" depart="368.00" departLane="edge_001_1" departPos="5.10" departSpeed="8.58" departDelay="0.65" arrival="-1.00" arrivalLane="" arrivalPos="-1.00" arrivalSpeed="-1.00" duration="532.00" routeLength="3736.41" waitingTime="0.00" waitingCount="0" stopTime="0.00" timeLoss="56.95" rerouteNo="0" devices="tripinfo_detour-mitigation_veh_0040" vType="passenger" speedFactor="1.03" vaporized="end"/>
    <tripinfo id="detour-mitigation_veh_0041" depart="377.00" departLane="edge_001_0" departPos="5.10" departSpeed="7.97" departDelay="0.47" arrival="-1.00" arrivalLane="" arrivalPos="-1.00" arrivalSpeed="-1.00" duration="523.00" routeLength="3537.49" waitingTime="0.00" waitingCount="0" stopTime="0.00" timeLoss="47.94" rerouteNo="0" devices="tripinfo_detour-mitigation_veh_0041" vType="passenger" speedFactor="0.96" vaporized="end"/>
    <tripinfo id="detour-mitigation_veh_0042" depart="386.00" departLane="edge_001_1" departPos="5.10" departSpeed="9.10" departDelay="0.29" arrival="-1.00" arrivalLane="" arrivalPos="-1.00" arrivalSpeed="-1.00" duration="514.00" routeLength="3761.53" waitingTime="0.00" waitingCount="0" stopTime="0.00" timeLoss="62.38" rerouteNo="0" devices="tripinfo_detour-mitigation_veh_0042" vType="passenger" speedFactor="1.09" vaporized="end"/>
    <tripinfo id="detour-mitigation_veh_0043" depart="395.00" departLane="edge_001_0" departPos="5.10" departSpeed="8.64" departDelay="0.10" arrival="-1.00" arrivalLane="" arrivalPos="-1.00" arrivalSpeed="-1.00" duration="505.00" routeLength="3673.89" waitingTime="0.00" waitingCount="0" stopTime="0.00" timeLoss="42.77" rerouteNo="0" devices="tripinfo_detour-mitigation_veh_0043" vType="passenger" speedFactor="1.04" vaporized="end"/>
    <tripinfo id="detour-mitigation_veh_0044" depart="405.00" departLane="edge_001_1" departPos="5.10" departSpeed="8.69" departDelay="0.92" arrival="-1.00" arrivalLane="" arrivalPos="-1.00" arrivalSpeed="-1.00" duration="495.00" routeLength="3630.02" waitingTime="0.00" waitingCount="0" stopTime="0.00" timeLoss="43.16" rerouteNo="0" devices="tripinfo_detour-mitigation_veh_0044" vType="passenger" speedFactor="1.04" vaporized="end"/>
    <tripinfo id="detour-mitigation_veh_0045" depart="414.00" departLane="edge_001_1" departPos="5.10" departSpeed="9.06" departDelay="0.73" arrival="-1.00" arrivalLane="" arrivalPos="-1.00" arrivalSpeed="-1.00" duration="486.00" routeLength="3659.67" waitingTime="0.00" waitingCount="0" stopTime="0.00" timeLoss="47.60" rerouteNo="0" devices="tripinfo_detour-mitigation_veh_0045" vType="passenger" speedFactor="1.09" vaporized="end"/>
    <tripinfo id="detour-mitigation_veh_0046" depart="423.00" departLane="edge_001_1" departPos="5.10" departSpeed="8.31" departDelay="0.55" arrival="-1.00" arrivalLane="" arrivalPos="-1.00" arrivalSpeed="-1.00" duration="477.00" routeLength="3431.46" waitingTime="0.00" waitingCount="0" stopTime="0.00" timeLoss="40.98" rerouteNo="0" devices="tripinfo_detour-mitigation_veh_0046" vType="passenger" speedFactor="1.00" vaporized="end"/>
    <tripinfo id="detour-mitigation_veh_0047" depart="432.00" departLane="edge_001_1" departPos="5.10" departSpeed="7.50" departDelay="0.37" arrival="-1.00" arrivalLane="" arrivalPos="-1.00" arrivalSpeed="-1.00" duration="468.00" routeLength="3151.63" waitingTime="0.00" waitingCount="0" stopTime="0.00" timeLoss="42.04" rerouteNo="0" devices="tripinfo_detour-mitigation_veh_0047" vType="passenger" speedFactor="0.90" vaporized="end"/>
    <tripinfo id="detour-mitigation_veh_0048" depart="441.00" departLane="edge_001_1" departPos="5.10" departSpeed="7.30" departDelay="0.18" arrival="-1.00" arrivalLane="" arrivalPos="-1.00" arrivalSpeed="-1.00" duration="459.00" routeLength="3039.63" waitingTime="0.00" waitingCount="0" stopTime="0.00" timeLoss="41.52" rerouteNo="0" devices="tripinfo_detour-mitigation_veh_0048" vType="passenger" speedFactor="0.88" vaporized="end"/>
    <tripinfo id="detour-mitigation_veh_0049" depart="450.00" departLane="edge_001_1" departPos="5.10" departSpeed="7.08" departDelay="0.00" arrival="-1.00" arrivalLane="" arrivalPos="-1.00" arrivalSpeed="-1.00" duration="450.00" routeLength="2873.84" waitingTime="0.00" waitingCount="0" stopTime="0.00" timeLoss="42.94" rerouteNo="0" devices="tripinfo_detour-mitigation_veh_0049" vType="passenger" speedFactor="0.85" vaporized="end"/>
    <tripinfo id="detour-mitigation_veh_0050" depart="460.00" departLane="edge_001_1" departPos="5.10" departSpeed="7.12" departDelay="0.82" arrival="-1.00" arrivalLane="" arrivalPos="-1.00" arrivalSpeed="-1.00" duration="440.00" routeLength="2820.51" waitingTime="0.00" waitingCount="0" stopTime="0.00" timeLoss="42.61" rerouteNo="0" devices="tripinfo_detour-mitigation_veh_0050" vType="passenger" speedFactor="0.85" vaporized="end"/>
    <tripinfo id="detour-mitigation_veh_0051" depart="469.00" departLane="edge_001_1" departPos="5.10" departSpeed="9.74" departDelay="0.63" arrival="-1.00" arrivalLane="" arrivalPos="-1.00" arrivalSpeed="-1.00" duration="431.00" routeLength="3459.37" waitingTime="0.00" waitingCount="0" stopTime="0.00" timeLoss="54.19" rerouteNo="0" devices="tripinfo_detour-mitigation_veh_0051" vType="passenger" speedFactor="1.17" vaporized="end"/>
    <tripinfo id="detour-mitigation_veh_0052" depart="478.00" departLane="edge_001_0" departPos="5.10" departSpeed="8.47" departDelay="0.45" arrival="-1.00" arrivalLane="" arrivalPos="-1.00" arrivalSpeed="-1.00" duration="422.00" routeLength="3139.19" waitingTime="0.00" waitingCount="0" stopTime="0.00" timeLoss="46.93" rerouteNo="0" devices="tripinfo_detour-mitigation_veh_0052" vType="passenger" speedFactor="1.02" vaporized="end"/>
    <tripinfo id="detour-mitigation_veh_0053" depart="487.00" departLane="edge_001_1" departPos="5.10" departSpeed="9.13" departDelay="0.27" arrival="-1.00" arrivalLane="" arrivalPos="-1.00" arrivalSpeed="-1.00" duration="413.00" routeLength="3326.51" waitingTime="0.00" waitingCount="0" stopTime="0.00" timeLoss="33.76" rerouteNo="0" devices="tripinfo_detour-mitigation_veh_0053" vType="passenger" speedFactor="1.10" vaporized="end"/>
    <tripinfo id="detour-mitigation_veh_0054" depart="496.00" departLane="edge_001_1" departPos="5.10" departSpeed="8.36" departDelay="0.08" arrival="-1.00" arrivalLane="" arrivalPos="-1.00" arrivalSpeed="-1.00" duration="404.00" routeLength="3024.27" waitingTime="0.00" waitingCount="0" stopTime="0.00" timeLoss="40.67" rerouteNo="0" devices="tripinfo_detour-mitigation_veh_0054" vType="passenger" speedFactor="1.00" vaporized="end"/>
    <tripinfo id="detour-mitigation_veh_0055" depart="506.00" departLane="edge_001_1" departPos="5.10" departSpeed="8.30" departDelay="0.90" arrival="-1.00" arrivalLane="" arrivalPos="-1.00" arrivalSpeed="-1.00" duration="394.00" routeLength="2992.70" waitingTime="0.00" waitingCount="0" stopTime="0.00" timeLoss="31.91" rerouteNo="0" devices="tripinfo_detour-mitigation_veh_0055" vType="passenger" speedFactor="1.00" vaporized="end"/>
    <tripinfo id="detour-mitigation_veh_0056" depart="515.00" departLane="edge_001_1" departPos="5.10" departSpeed="7.49" departDelay="0.71" arrival="-1.00" arrivalLane="" arrivalPos="-1.00" arrivalSpeed="-1.00" duration="385.00" routeLength="2615.16" waitingTime="0.00" waitingCount="0" stopTime="0.00" timeLoss="33.92" rerouteNo="0" devices="tripinfo_detour-mitigation_veh_0056" vType="passenger" speedFactor="0.90" vaporized="end"/>
    <tripinfo id="detour-mitigation_veh_0057" depart="524.00" departLane="edge_001_1" departPos="5.10" departSpeed="9.52" departDelay="0.53" arrival="-1.00" arrivalLane="" arrivalPos="-1.00" arrivalSpeed="-1.00" duration="376.00" routeLength="3126.84" waitingTime="0.00" waitingCount="0" stopTime="0.00" timeLoss="44.46" rerouteNo="0" devices="tripinfo_detour-mitigation_veh_0057" vType="passenger" speedFactor="1.14" vaporized="end"/>
    <tripinfo id="detour-mitigation_veh_0058" depart="533.00" departLane="edge_001_0" departPos="5.10" departSpeed="8.53" departDelay="0.35" arrival="-1.00" arrivalLane="" arrivalPos="-1.00" arrivalSpeed="-1.00" duration="367.00" routeLength="2805.63" waitingTime="0.00" waitingCount="0" stopTime="0.00" timeLoss="36.96" rerouteNo="0" devices="tripinfo_detour-mitigation_veh_0058" vType="passenger" speedFactor="1.02" vaporized="end"/>
    <tripinfo id="detour-mitigation_veh_0059" depart="542.00" departLane="edge_001_1" departPos="5.10" departSpeed="8.08" departDelay="0.16" arrival="-1.00" arrivalLane="" arrivalPos="-1.00" arrivalSpeed="-1.00" duration="358.00" routeLength="2632.72" waitingTime="0.00" waitingCount="0" stopTime="0.00" timeLoss="31.00" rerouteNo="0" devices="tripinfo_detour-mitigation_veh_0059" vType="passenger" speedFactor="0.97" vaporized="end"/>
    <tripinfo id="detour-mitigation_veh_0060" depart="552.00" departLane="edge_001_1" departPos="5.10" departSpeed="9.02" departDelay="0.98" arrival="-1.00" arrivalLane="" arrivalPos="-1.00" arrivalSpeed="-1.00" duration="348.00" routeLength="2843.30" waitingTime="0.00" waitingCount="0" stopTime="0.00" timeLoss="31.68" rerouteNo="0" devices="tripinfo_detour-mitigation_veh_0060" vType="passenger" speedFactor="1.08" vaporized="end"/>
    <tripinfo id="detour-mitigation_veh_0061" depart="561.00" departLane="edge_001_0" departPos="5.10" departSpeed="9.32" departDelay="0.80" arrival="-1.00" arrivalLane="" arrivalPos="-1.00" arrivalSpeed="-1.00" duration="339.00" routeLength="2858.67" waitingTime="0.00" waitingCount="0" stopTime="0.00" timeLoss="31.40" rerouteNo="0" devices="tripinfo_detour-mitigation_veh_0061" vType="passenger" speedFactor="1.12" vaporized="end"/>
    <tripinfo id="detour-mitigation_veh_0062" depart="570.00" departLane="edge_001_1" departPos="5.10" departSpeed="8.46" departDelay="0.61" arrival="-1.00" arrivalLane="" arrivalPos="-1.00" arrivalSpeed="-1.00" duration="330.00" routeLength="2560.95" waitingTime="0.00" waitingCount="0" stopTime="0.00" timeLoss="25.91" rerouteNo="0" devices="tripinfo_detour-mitigation_veh_0062" vType="passenger" speedFactor="1.02" vaporized="end"/>
    <tripinfo id="detour-mitigation_veh_0063" depart="579.00" departLane="edge_001_1" departPos="5.10" departSpeed="8.22" departDelay="0.43" arrival="-1.00" arrivalLane="" arrivalPos="-1.00" arrivalSpeed="-1.00" duration="321.00" routeLength="2396.22" waitingTime="0.00" waitingCount="0" stopTime="0.00" timeLoss="28.09" rerouteNo="0" devices="tripinfo_detour-mitigation_veh_0063" vType="passenger" speedFactor="0.99" vaporized="end"/>